    1C
    1UUSER                                                              
    1UDATE              25.december.2019                                
    1UTIME              19:59:29                                        
    1UHOST                                                              
    1UPGM               CalculiX                                        
    1UVERSION           Version 2.11                             
    1UCOMPILETIME       So 31. Jul 13:26:31 CEST 2016                    
    1UDIR                                                               
    1UDBN                                                               
    1UMAT    1STEEL                                                     
    2C                           261                                     1
 -1         1 1.00000E+00 1.00000E+00 0.00000E+00
 -1         2 1.00000E+00 5.00000E-01 0.00000E+00
 -1         3 1.00000E+00 5.00000E-01 1.00000E+00
 -1         4 1.00000E+00 1.00000E+00 1.00000E+00
 -1         5 5.00000E-01 1.00000E+00 0.00000E+00
 -1         6 5.00000E-01 5.00000E-01-1.77636E-15
 -1         7 5.00000E-01 5.00000E-01 1.00000E+00
 -1         8 5.00000E-01 1.00000E+00 1.00000E+00
 -1         9 1.00000E+00 7.50000E-01 0.00000E+00
 -1        10 1.00000E+00 5.00000E-01 5.00000E-01
 -1        11 1.00000E+00 7.50000E-01 1.00000E+00
 -1        12 1.00000E+00 1.00000E+00 5.00000E-01
 -1        13 7.50000E-01 1.00000E+00 0.00000E+00
 -1        14 7.50000E-01 5.00000E-01-8.88178E-16
 -1        15 7.50000E-01 5.00000E-01 1.00000E+00
 -1        16 7.50000E-01 1.00000E+00 1.00000E+00
 -1        17 5.00000E-01 7.50000E-01-1.77636E-15
 -1        18 5.00000E-01 5.00000E-01 5.00000E-01
 -1        19 5.00000E-01 7.50000E-01 1.00000E+00
 -1        20 5.00000E-01 1.00000E+00 5.00000E-01
 -1        21 1.00000E+00 5.00000E-01 2.00000E+00
 -1        22 1.00000E+00 1.00000E+00 2.00000E+00
 -1        23 5.00000E-01 5.00000E-01 2.00000E+00
 -1        24 5.00000E-01 1.00000E+00 2.00000E+00
 -1        25 1.00000E+00 5.00000E-01 1.50000E+00
 -1        26 1.00000E+00 7.50000E-01 2.00000E+00
 -1        27 1.00000E+00 1.00000E+00 1.50000E+00
 -1        28 7.50000E-01 5.00000E-01 2.00000E+00
 -1        29 7.50000E-01 1.00000E+00 2.00000E+00
 -1        30 5.00000E-01 5.00000E-01 1.50000E+00
 -1        31 5.00000E-01 7.50000E-01 2.00000E+00
 -1        32 5.00000E-01 1.00000E+00 1.50000E+00
 -1        33 1.00000E+00 5.00000E-01 3.00000E+00
 -1        34 1.00000E+00 1.00000E+00 3.00000E+00
 -1        35 5.00000E-01 5.00000E-01 3.00000E+00
 -1        36 5.00000E-01 1.00000E+00 3.00000E+00
 -1        37 1.00000E+00 5.00000E-01 2.50000E+00
 -1        38 1.00000E+00 7.50000E-01 3.00000E+00
 -1        39 1.00000E+00 1.00000E+00 2.50000E+00
 -1        40 7.50000E-01 5.00000E-01 3.00000E+00
 -1        41 7.50000E-01 1.00000E+00 3.00000E+00
 -1        42 5.00000E-01 5.00000E-01 2.50000E+00
 -1        43 5.00000E-01 7.50000E-01 3.00000E+00
 -1        44 5.00000E-01 1.00000E+00 2.50000E+00
 -1        45 1.00000E+00 5.00000E-01 4.00000E+00
 -1        46 1.00000E+00 1.00000E+00 4.00000E+00
 -1        47 5.00000E-01 5.00000E-01 4.00000E+00
 -1        48 5.00000E-01 1.00000E+00 4.00000E+00
 -1        49 1.00000E+00 5.00000E-01 3.50000E+00
 -1        50 1.00000E+00 7.50000E-01 4.00000E+00
 -1        51 1.00000E+00 1.00000E+00 3.50000E+00
 -1        52 7.50000E-01 5.00000E-01 4.00000E+00
 -1        53 7.50000E-01 1.00000E+00 4.00000E+00
 -1        54 5.00000E-01 5.00000E-01 3.50000E+00
 -1        55 5.00000E-01 7.50000E-01 4.00000E+00
 -1        56 5.00000E-01 1.00000E+00 3.50000E+00
 -1        57 1.00000E+00 5.00000E-01 5.00000E+00
 -1        58 1.00000E+00 1.00000E+00 5.00000E+00
 -1        59 5.00000E-01 5.00000E-01 5.00000E+00
 -1        60 5.00000E-01 1.00000E+00 5.00000E+00
 -1        61 1.00000E+00 5.00000E-01 4.50000E+00
 -1        62 1.00000E+00 7.50000E-01 5.00000E+00
 -1        63 1.00000E+00 1.00000E+00 4.50000E+00
 -1        64 7.50000E-01 5.00000E-01 5.00000E+00
 -1        65 7.50000E-01 1.00000E+00 5.00000E+00
 -1        66 5.00000E-01 5.00000E-01 4.50000E+00
 -1        67 5.00000E-01 7.50000E-01 5.00000E+00
 -1        68 5.00000E-01 1.00000E+00 4.50000E+00
 -1        69 1.00000E+00 5.00000E-01 6.00000E+00
 -1        70 1.00000E+00 1.00000E+00 6.00000E+00
 -1        71 5.00000E-01 5.00000E-01 6.00000E+00
 -1        72 5.00000E-01 1.00000E+00 6.00000E+00
 -1        73 1.00000E+00 5.00000E-01 5.50000E+00
 -1        74 1.00000E+00 7.50000E-01 6.00000E+00
 -1        75 1.00000E+00 1.00000E+00 5.50000E+00
 -1        76 7.50000E-01 5.00000E-01 6.00000E+00
 -1        77 7.50000E-01 1.00000E+00 6.00000E+00
 -1        78 5.00000E-01 5.00000E-01 5.50000E+00
 -1        79 5.00000E-01 7.50000E-01 6.00000E+00
 -1        80 5.00000E-01 1.00000E+00 5.50000E+00
 -1        81 1.00000E+00 5.00000E-01 7.00000E+00
 -1        82 1.00000E+00 1.00000E+00 7.00000E+00
 -1        83 5.00000E-01 5.00000E-01 7.00000E+00
 -1        84 5.00000E-01 1.00000E+00 7.00000E+00
 -1        85 1.00000E+00 5.00000E-01 6.50000E+00
 -1        86 1.00000E+00 7.50000E-01 7.00000E+00
 -1        87 1.00000E+00 1.00000E+00 6.50000E+00
 -1        88 7.50000E-01 5.00000E-01 7.00000E+00
 -1        89 7.50000E-01 1.00000E+00 7.00000E+00
 -1        90 5.00000E-01 5.00000E-01 6.50000E+00
 -1        91 5.00000E-01 7.50000E-01 7.00000E+00
 -1        92 5.00000E-01 1.00000E+00 6.50000E+00
 -1        93 1.00000E+00 5.00000E-01 8.00000E+00
 -1        94 1.00000E+00 1.00000E+00 8.00000E+00
 -1        95 5.00000E-01 5.00000E-01 8.00000E+00
 -1        96 5.00000E-01 1.00000E+00 8.00000E+00
 -1        97 1.00000E+00 5.00000E-01 7.50000E+00
 -1        98 1.00000E+00 7.50000E-01 8.00000E+00
 -1        99 1.00000E+00 1.00000E+00 7.50000E+00
 -1       100 7.50000E-01 5.00000E-01 8.00000E+00
 -1       101 7.50000E-01 1.00000E+00 8.00000E+00
 -1       102 5.00000E-01 5.00000E-01 7.50000E+00
 -1       103 5.00000E-01 7.50000E-01 8.00000E+00
 -1       104 5.00000E-01 1.00000E+00 7.50000E+00
 -1       105 0.00000E+00 1.00000E+00 0.00000E+00
 -1       106 0.00000E+00 5.00000E-01 0.00000E+00
 -1       107 1.11022E-16 5.00000E-01 1.00000E+00
 -1       108 0.00000E+00 1.00000E+00 1.00000E+00
 -1       109 2.50000E-01 1.00000E+00 0.00000E+00
 -1       110 2.50000E-01 5.00000E-01-1.77636E-15
 -1       111 2.50000E-01 5.00000E-01 1.00000E+00
 -1       112 2.50000E-01 1.00000E+00 1.00000E+00
 -1       113 0.00000E+00 7.50000E-01 0.00000E+00
 -1       114 0.00000E+00 5.00000E-01 5.00000E-01
 -1       115 0.00000E+00 7.50000E-01 1.00000E+00
 -1       116 0.00000E+00 1.00000E+00 5.00000E-01
 -1       117 0.00000E+00 5.00000E-01 2.00000E+00
 -1       118 0.00000E+00 1.00000E+00 2.00000E+00
 -1       119 2.50000E-01 5.00000E-01 2.00000E+00
 -1       120 2.50000E-01 1.00000E+00 2.00000E+00
 -1       121-2.22045E-16 5.00000E-01 1.50000E+00
 -1       122 0.00000E+00 7.50000E-01 2.00000E+00
 -1       123 0.00000E+00 1.00000E+00 1.50000E+00
 -1       124 0.00000E+00 5.00000E-01 3.00000E+00
 -1       125 0.00000E+00 1.00000E+00 3.00000E+00
 -1       126 2.50000E-01 5.00000E-01 3.00000E+00
 -1       127 2.50000E-01 1.00000E+00 3.00000E+00
 -1       128-2.22045E-16 5.00000E-01 2.50000E+00
 -1       129 0.00000E+00 7.50000E-01 3.00000E+00
 -1       130 0.00000E+00 1.00000E+00 2.50000E+00
 -1       131-2.22045E-16 5.00000E-01 4.00000E+00
 -1       132 0.00000E+00 1.00000E+00 4.00000E+00
 -1       133 2.50000E-01 5.00000E-01 4.00000E+00
 -1       134 2.50000E-01 1.00000E+00 4.00000E+00
 -1       135 1.11022E-16 5.00000E-01 3.50000E+00
 -1       136-1.11022E-16 7.50000E-01 4.00000E+00
 -1       137 0.00000E+00 1.00000E+00 3.50000E+00
 -1       138-2.22045E-16 5.00000E-01 5.00000E+00
 -1       139 0.00000E+00 1.00000E+00 5.00000E+00
 -1       140 2.50000E-01 5.00000E-01 5.00000E+00
 -1       141 2.50000E-01 1.00000E+00 5.00000E+00
 -1       142 5.55112E-17 5.00000E-01 4.50000E+00
 -1       143 0.00000E+00 7.50000E-01 5.00000E+00
 -1       144 0.00000E+00 1.00000E+00 4.50000E+00
 -1       145-2.22045E-16 5.00000E-01 6.00000E+00
 -1       146 0.00000E+00 1.00000E+00 6.00000E+00
 -1       147 2.50000E-01 5.00000E-01 6.00000E+00
 -1       148 2.50000E-01 1.00000E+00 6.00000E+00
 -1       149-1.11022E-16 5.00000E-01 5.50000E+00
 -1       150 0.00000E+00 7.50000E-01 6.00000E+00
 -1       151 0.00000E+00 1.00000E+00 5.50000E+00
 -1       152 1.11022E-16 5.00000E-01 7.00000E+00
 -1       153 0.00000E+00 1.00000E+00 7.00000E+00
 -1       154 2.50000E-01 5.00000E-01 7.00000E+00
 -1       155 2.50000E-01 1.00000E+00 7.00000E+00
 -1       156-2.22045E-16 5.00000E-01 6.50000E+00
 -1       157-2.22045E-16 7.50000E-01 7.00000E+00
 -1       158 0.00000E+00 1.00000E+00 6.50000E+00
 -1       159 0.00000E+00 5.00000E-01 8.00000E+00
 -1       160 0.00000E+00 1.00000E+00 8.00000E+00
 -1       161 2.50000E-01 5.00000E-01 8.00000E+00
 -1       162 2.50000E-01 1.00000E+00 8.00000E+00
 -1       163-2.22045E-16 5.00000E-01 7.50000E+00
 -1       164 0.00000E+00 7.50000E-01 8.00000E+00
 -1       165 0.00000E+00 1.00000E+00 7.50000E+00
 -1       166 1.00000E+00 0.00000E+00 0.00000E+00
 -1       167 1.00000E+00 0.00000E+00 1.00000E+00
 -1       168 5.00000E-01 0.00000E+00 0.00000E+00
 -1       169 5.00000E-01 1.11022E-16 1.00000E+00
 -1       170 1.00000E+00 2.50000E-01 0.00000E+00
 -1       171 1.00000E+00 0.00000E+00 5.00000E-01
 -1       172 1.00000E+00 2.50000E-01 1.00000E+00
 -1       173 7.50000E-01 0.00000E+00 0.00000E+00
 -1       174 7.50000E-01 0.00000E+00 1.00000E+00
 -1       175 5.00000E-01 2.50000E-01 0.00000E+00
 -1       176 5.00000E-01 0.00000E+00 5.00000E-01
 -1       177 5.00000E-01 2.50000E-01 1.00000E+00
 -1       178 1.00000E+00 0.00000E+00 2.00000E+00
 -1       179 5.00000E-01 0.00000E+00 2.00000E+00
 -1       180 1.00000E+00 0.00000E+00 1.50000E+00
 -1       181 1.00000E+00 2.50000E-01 2.00000E+00
 -1       182 7.50000E-01 0.00000E+00 2.00000E+00
 -1       183 5.00000E-01-2.22045E-16 1.50000E+00
 -1       184 5.00000E-01 2.50000E-01 2.00000E+00
 -1       185 1.00000E+00 0.00000E+00 3.00000E+00
 -1       186 5.00000E-01 0.00000E+00 3.00000E+00
 -1       187 1.00000E+00 0.00000E+00 2.50000E+00
 -1       188 1.00000E+00 2.50000E-01 3.00000E+00
 -1       189 7.50000E-01 0.00000E+00 3.00000E+00
 -1       190 5.00000E-01-2.22045E-16 2.50000E+00
 -1       191 5.00000E-01 2.50000E-01 3.00000E+00
 -1       192 1.00000E+00 0.00000E+00 4.00000E+00
 -1       193 5.00000E-01-2.22045E-16 4.00000E+00
 -1       194 1.00000E+00 0.00000E+00 3.50000E+00
 -1       195 1.00000E+00 2.50000E-01 4.00000E+00
 -1       196 7.50000E-01-1.11022E-16 4.00000E+00
 -1       197 5.00000E-01 1.11022E-16 3.50000E+00
 -1       198 5.00000E-01 2.50000E-01 4.00000E+00
 -1       199 1.00000E+00 0.00000E+00 5.00000E+00
 -1       200 5.00000E-01-2.22045E-16 5.00000E+00
 -1       201 1.00000E+00 0.00000E+00 4.50000E+00
 -1       202 1.00000E+00 2.50000E-01 5.00000E+00
 -1       203 7.50000E-01 0.00000E+00 5.00000E+00
 -1       204 5.00000E-01 5.55112E-17 4.50000E+00
 -1       205 5.00000E-01 2.50000E-01 5.00000E+00
 -1       206 1.00000E+00 0.00000E+00 6.00000E+00
 -1       207 5.00000E-01-2.22045E-16 6.00000E+00
 -1       208 1.00000E+00 0.00000E+00 5.50000E+00
 -1       209 1.00000E+00 2.50000E-01 6.00000E+00
 -1       210 7.50000E-01 0.00000E+00 6.00000E+00
 -1       211 5.00000E-01-1.11022E-16 5.50000E+00
 -1       212 5.00000E-01 2.50000E-01 6.00000E+00
 -1       213 1.00000E+00 0.00000E+00 7.00000E+00
 -1       214 5.00000E-01 1.11022E-16 7.00000E+00
 -1       215 1.00000E+00 0.00000E+00 6.50000E+00
 -1       216 1.00000E+00 2.50000E-01 7.00000E+00
 -1       217 7.50000E-01-2.22045E-16 7.00000E+00
 -1       218 5.00000E-01-2.22045E-16 6.50000E+00
 -1       219 5.00000E-01 2.50000E-01 7.00000E+00
 -1       220 1.00000E+00 0.00000E+00 8.00000E+00
 -1       221 5.00000E-01 0.00000E+00 8.00000E+00
 -1       222 1.00000E+00 0.00000E+00 7.50000E+00
 -1       223 1.00000E+00 2.50000E-01 8.00000E+00
 -1       224 7.50000E-01 0.00000E+00 8.00000E+00
 -1       225 5.00000E-01-2.22045E-16 7.50000E+00
 -1       226 5.00000E-01 2.50000E-01 8.00000E+00
 -1       227 0.00000E+00 0.00000E+00 0.00000E+00
 -1       228 0.00000E+00 0.00000E+00 1.00000E+00
 -1       229 2.50000E-01 0.00000E+00 0.00000E+00
 -1       230 2.50000E-01-1.11022E-16 1.00000E+00
 -1       231 0.00000E+00 2.50000E-01 0.00000E+00
 -1       232 0.00000E+00 0.00000E+00 5.00000E-01
 -1       233-1.11022E-16 2.50000E-01 1.00000E+00
 -1       234 0.00000E+00 0.00000E+00 2.00000E+00
 -1       235 2.50000E-01 0.00000E+00 2.00000E+00
 -1       236 0.00000E+00 0.00000E+00 1.50000E+00
 -1       237 0.00000E+00 2.50000E-01 2.00000E+00
 -1       238 0.00000E+00 0.00000E+00 3.00000E+00
 -1       239 2.50000E-01 0.00000E+00 3.00000E+00
 -1       240 0.00000E+00 0.00000E+00 2.50000E+00
 -1       241 0.00000E+00 2.50000E-01 3.00000E+00
 -1       242 0.00000E+00 0.00000E+00 4.00000E+00
 -1       243 2.50000E-01-2.22045E-16 4.00000E+00
 -1       244 0.00000E+00 0.00000E+00 3.50000E+00
 -1       245-2.22045E-16 2.50000E-01 4.00000E+00
 -1       246 0.00000E+00 0.00000E+00 5.00000E+00
 -1       247 2.50000E-01 0.00000E+00 5.00000E+00
 -1       248 0.00000E+00 0.00000E+00 4.50000E+00
 -1       249 0.00000E+00 2.50000E-01 5.00000E+00
 -1       250 0.00000E+00 0.00000E+00 6.00000E+00
 -1       251 2.50000E-01 0.00000E+00 6.00000E+00
 -1       252 0.00000E+00 0.00000E+00 5.50000E+00
 -1       253 0.00000E+00 2.50000E-01 6.00000E+00
 -1       254 0.00000E+00 0.00000E+00 7.00000E+00
 -1       255 2.50000E-01 0.00000E+00 7.00000E+00
 -1       256 0.00000E+00 0.00000E+00 6.50000E+00
 -1       257 0.00000E+00 2.50000E-01 7.00000E+00
 -1       258 0.00000E+00 0.00000E+00 8.00000E+00
 -1       259 2.50000E-01 0.00000E+00 8.00000E+00
 -1       260 0.00000E+00 0.00000E+00 7.50000E+00
 -1       261 0.00000E+00 2.50000E-01 8.00000E+00
 -3
    3C                            32                                     1
 -1         1    4    0    1
 -2         1         2         3         4         5         6         7         8         9        10
 -2        11        12        13        14        15        16        17        18        19        20
 -1         2    4    0    1
 -2         4         3        21        22         8         7        23        24        11        25
 -2        26        27        16        15        28        29        19        30        31        32
 -1         3    4    0    1
 -2        22        21        33        34        24        23        35        36        26        37
 -2        38        39        29        28        40        41        31        42        43        44
 -1         4    4    0    1
 -2        34        33        45        46        36        35        47        48        38        49
 -2        50        51        41        40        52        53        43        54        55        56
 -1         5    4    0    1
 -2        46        45        57        58        48        47        59        60        50        61
 -2        62        63        53        52        64        65        55        66        67        68
 -1         6    4    0    1
 -2        58        57        69        70        60        59        71        72        62        73
 -2        74        75        65        64        76        77        67        78        79        80
 -1         7    4    0    1
 -2        70        69        81        82        72        71        83        84        74        85
 -2        86        87        77        76        88        89        79        90        91        92
 -1         8    4    0    1
 -2        82        81        93        94        84        83        95        96        86        97
 -2        98        99        89        88       100       101        91       102       103       104
 -1         9    4    0    1
 -2         5         6         7         8       105       106       107       108        17        18
 -2        19        20       109       110       111       112       113       114       115       116
 -1        10    4    0    1
 -2         8         7        23        24       108       107       117       118        19        30
 -2        31        32       112       111       119       120       115       121       122       123
 -1        11    4    0    1
 -2        24        23        35        36       118       117       124       125        31        42
 -2        43        44       120       119       126       127       122       128       129       130
 -1        12    4    0    1
 -2        36        35        47        48       125       124       131       132        43        54
 -2        55        56       127       126       133       134       129       135       136       137
 -1        13    4    0    1
 -2        48        47        59        60       132       131       138       139        55        66
 -2        67        68       134       133       140       141       136       142       143       144
 -1        14    4    0    1
 -2        60        59        71        72       139       138       145       146        67        78
 -2        79        80       141       140       147       148       143       149       150       151
 -1        15    4    0    1
 -2        72        71        83        84       146       145       152       153        79        90
 -2        91        92       148       147       154       155       150       156       157       158
 -1        16    4    0    1
 -2        84        83        95        96       153       152       159       160        91       102
 -2       103       104       155       154       161       162       157       163       164       165
 -1        17    4    0    1
 -2         2       166       167         3         6       168       169         7       170       171
 -2       172        10        14       173       174        15       175       176       177        18
 -1        18    4    0    1
 -2         3       167       178        21         7       169       179        23       172       180
 -2       181        25        15       174       182        28       177       183       184        30
 -1        19    4    0    1
 -2        21       178       185        33        23       179       186        35       181       187
 -2       188        37        28       182       189        40       184       190       191        42
 -1        20    4    0    1
 -2        33       185       192        45        35       186       193        47       188       194
 -2       195        49        40       189       196        52       191       197       198        54
 -1        21    4    0    1
 -2        45       192       199        57        47       193       200        59       195       201
 -2       202        61        52       196       203        64       198       204       205        66
 -1        22    4    0    1
 -2        57       199       206        69        59       200       207        71       202       208
 -2       209        73        64       203       210        76       205       211       212        78
 -1        23    4    0    1
 -2        69       206       213        81        71       207       214        83       209       215
 -2       216        85        76       210       217        88       212       218       219        90
 -1        24    4    0    1
 -2        81       213       220        93        83       214       221        95       216       222
 -2       223        97        88       217       224       100       219       225       226       102
 -1        25    4    0    1
 -2         6       168       169         7       106       227       228       107       175       176
 -2       177        18       110       229       230       111       231       232       233       114
 -1        26    4    0    1
 -2         7       169       179        23       107       228       234       117       177       183
 -2       184        30       111       230       235       119       233       236       237       121
 -1        27    4    0    1
 -2        23       179       186        35       117       234       238       124       184       190
 -2       191        42       119       235       239       126       237       240       241       128
 -1        28    4    0    1
 -2        35       186       193        47       124       238       242       131       191       197
 -2       198        54       126       239       243       133       241       244       245       135
 -1        29    4    0    1
 -2        47       193       200        59       131       242       246       138       198       204
 -2       205        66       133       243       247       140       245       248       249       142
 -1        30    4    0    1
 -2        59       200       207        71       138       246       250       145       205       211
 -2       212        78       140       247       251       147       249       252       253       149
 -1        31    4    0    1
 -2        71       207       214        83       145       250       254       152       212       218
 -2       219        90       147       251       255       154       253       256       257       156
 -1        32    4    0    1
 -2        83       214       221        95       152       254       258       159       219       225
 -2       226       102       154       255       259       161       257       260       261       163
 -3
    1PSTEP                         1           1           1          
  100CL  101 1.000000000         261                     0    1           1
 -4  DISP        4    1
 -5  D1          1    2    1    0
 -5  D2          1    2    2    0
 -5  D3          1    2    3    0
 -5  ALL         1    2    0    0    1ALL
 -1         1 0.00000E+00 0.00000E+00 0.00000E+00
 -1         2 0.00000E+00 0.00000E+00 0.00000E+00
 -1         3-4.71709E-16 1.85496E-03 3.58979E-16
 -1         4 2.25035E-04 1.91979E-03-1.85454E-03
 -1         5 0.00000E+00 0.00000E+00 0.00000E+00
 -1         6 0.00000E+00 0.00000E+00 0.00000E+00
 -1         7-4.63429E-16 1.97792E-03 7.06256E-18
 -1         8-1.11350E-15 2.05312E-03-1.87998E-03
 -1         9 0.00000E+00 0.00000E+00 0.00000E+00
 -1        10-1.74398E-16 3.48111E-04 1.88845E-16
 -1        11 1.13553E-04 1.84335E-03-9.19041E-04
 -1        12 3.08705E-04 5.37979E-04-9.25894E-04
 -1        13 0.00000E+00 0.00000E+00 0.00000E+00
 -1        14 0.00000E+00 0.00000E+00 0.00000E+00
 -1        15-4.60238E-16 1.95961E-03 1.74637E-16
 -1        16 1.11406E-04 2.02859E-03-1.86648E-03
 -1        17 0.00000E+00 0.00000E+00 0.00000E+00
 -1        18-1.37524E-16 4.79732E-04 4.37370E-18
 -1        19-7.94788E-16 1.97015E-03-9.29888E-04
 -1        20-4.36193E-16 6.70335E-04-8.99236E-04
 -1        21-1.42155E-15 7.39926E-03 5.17056E-16
 -1        22 2.24342E-04 7.48306E-03-3.53246E-03
 -1        23-1.41922E-15 7.51148E-03 1.65205E-17
 -1        24-2.77111E-15 7.60419E-03-3.54009E-03
 -1        25-9.19221E-16 4.17220E-03 4.55911E-16
 -1        26 1.11915E-04 7.41497E-03-1.75485E-03
 -1        27 2.54184E-04 4.32007E-03-2.72643E-03
 -1        28-1.41998E-15 7.48163E-03 2.60358E-16
 -1        29 1.12185E-04 7.57013E-03-3.53904E-03
 -1        30-9.00620E-16 4.29741E-03 1.43386E-17
 -1        31-2.09186E-15 7.53195E-03-1.76126E-03
 -1        32-1.90301E-15 4.44084E-03-2.72714E-03
 -1        33-2.46953E-15 1.60429E-02 4.75423E-16
 -1        34 1.90892E-04 1.61274E-02-4.94307E-03
 -1        35-2.46182E-15 1.61376E-02 2.53203E-17
 -1        36-4.45620E-15 1.62265E-02-4.94788E-03
 -1        37-1.94961E-15 1.13542E-02 5.13204E-16
 -1        38 9.55143E-05 1.60603E-02-2.46161E-03
 -1        39 2.13259E-04 1.14690E-02-4.26707E-03
 -1        40-2.47206E-15 1.61150E-02 2.46514E-16
 -1        41 9.53877E-05 1.62017E-02-4.94772E-03
 -1        42-1.95221E-15 1.14612E-02 2.24819E-17
 -1        43-3.46437E-15 1.61571E-02-2.46596E-03
 -1        44-3.62709E-15 1.15729E-02-4.27059E-03
 -1        45-3.25261E-15 2.72625E-02 3.25586E-16
 -1        46 1.53775E-04 2.73359E-02-6.10066E-03
 -1        47-3.26426E-15 2.73391E-02 5.33156E-17
 -1        48-5.93015E-15 2.74137E-02-6.10479E-03
 -1        49-2.90523E-15 2.13581E-02 4.09479E-16
 -1        50 7.69002E-05 2.72801E-02-3.03984E-03
 -1        51 1.73933E-04 2.14480E-02-5.55319E-03
 -1        52-3.26562E-15 2.73199E-02 1.90887E-16
 -1        53 7.68984E-05 2.73939E-02-6.10515E-03
 -1        54-2.91911E-15 2.14453E-02 2.87109E-17
 -1        55-4.58560E-15 2.73573E-02-3.04402E-03
 -1        56-5.21509E-15 2.15340E-02-5.55729E-03
 -1        57-3.70884E-15 4.05410E-02 2.01373E-16
 -1        58 1.16063E-04 4.05994E-02-7.00006E-03
 -1        59-3.66986E-15 4.05992E-02 9.21992E-17
 -1        60-7.25719E-15 4.06569E-02-7.00420E-03
 -1        61-3.50306E-15 3.36758E-02 2.63345E-16
 -1        62 5.78939E-05 4.05558E-02-3.48993E-03
 -1        63 1.35160E-04 3.37438E-02-6.58181E-03
 -1        64-3.69424E-15 4.05846E-02 1.48522E-16
 -1        65 5.80078E-05 4.06430E-02-7.00458E-03
 -1        66-3.52019E-15 3.37434E-02 4.53197E-17
 -1        67-5.45979E-15 4.06135E-02-3.49402E-03
 -1        68-6.65070E-15 3.38114E-02-6.58595E-03
 -1        69-3.79266E-15 5.53628E-02 1.56125E-16
 -1        70 7.69920E-05 5.54088E-02-7.64403E-03
 -1        71-3.77239E-15 5.54024E-02 1.16010E-16
 -1        72-8.33792E-15 5.54438E-02-7.64785E-03
 -1        73-3.73443E-15 4.77933E-02 1.54065E-16
 -1        74 3.90815E-05 5.53758E-02-3.81105E-03
 -1        75 9.58545E-05 4.78403E-02-7.35343E-03
 -1        76-3.76608E-15 5.53921E-02 1.33574E-16
 -1        77 3.85764E-05 5.54347E-02-7.64826E-03
 -1        78-3.77832E-15 4.78410E-02 8.46013E-17
 -1        79-6.04397E-15 5.54134E-02-3.81534E-03
 -1        80-7.83585E-15 4.78888E-02-7.35753E-03
 -1        81-3.90989E-15 7.12086E-02 2.12455E-16
 -1        82 4.40455E-05 7.12415E-02-8.02771E-03
 -1        83-3.84946E-15 7.12293E-02 9.41087E-17
 -1        84-9.17766E-15 7.12547E-02-8.03280E-03
 -1        85-3.77604E-15 6.31961E-02 1.54639E-16
 -1        86 1.98378E-05 7.12214E-02-4.00603E-03
 -1        87 5.84404E-05 6.32195E-02-7.86671E-03
 -1        88-3.89104E-15 7.12242E-02 1.61684E-16
 -1        89 2.16869E-05 7.12574E-02-8.03278E-03
 -1        90-3.81361E-15 6.32245E-02 1.12134E-16
 -1        91-6.49911E-15 7.12376E-02-4.00928E-03
 -1        92-8.86379E-15 6.32513E-02-7.87094E-03
 -1        93-4.37960E-15 8.75799E-02 3.23300E-16
 -1        94-2.27651E-05 8.76459E-02-8.17249E-03
 -1        95-4.29713E-15 8.75640E-02 9.70103E-17
 -1        96-1.01025E-14 8.75949E-02-8.16146E-03
 -1        97-4.00380E-15 7.93762E-02 2.82747E-16
 -1        98-2.48820E-06 8.76076E-02-4.06429E-03
 -1        99 1.13033E-05 7.93765E-02-8.12610E-03
 -1       100-4.32258E-15 8.75703E-02 1.76918E-16
 -1       101-1.08463E-05 8.76029E-02-8.17102E-03
 -1       102-4.03583E-15 7.93818E-02 1.10155E-16
 -1       103-7.14118E-15 8.75774E-02-4.06940E-03
 -1       104-9.87590E-15 7.93873E-02-8.12904E-03
 -1       105 0.00000E+00 0.00000E+00 0.00000E+00
 -1       106 0.00000E+00 0.00000E+00 0.00000E+00
 -1       107-4.69114E-16 1.85496E-03-3.41689E-16
 -1       108-2.25035E-04 1.91979E-03-1.85454E-03
 -1       109 0.00000E+00 0.00000E+00 0.00000E+00
 -1       110 0.00000E+00 0.00000E+00 0.00000E+00
 -1       111-4.57731E-16 1.95961E-03-1.58445E-16
 -1       112-1.11406E-04 2.02859E-03-1.86648E-03
 -1       113 0.00000E+00 0.00000E+00 0.00000E+00
 -1       114-1.71561E-16 3.48111E-04-1.82553E-16
 -1       115-1.13553E-04 1.84335E-03-9.19041E-04
 -1       116-3.08705E-04 5.37979E-04-9.25894E-04
 -1       117-1.42010E-15 7.39926E-03-4.79054E-16
 -1       118-2.24342E-04 7.48306E-03-3.53246E-03
 -1       119-1.42236E-15 7.48163E-03-2.25558E-16
 -1       120-1.12185E-04 7.57013E-03-3.53904E-03
 -1       121-9.15798E-16 4.17220E-03-4.30213E-16
 -1       122-1.11915E-04 7.41497E-03-1.75485E-03
 -1       123-2.54184E-04 4.32007E-03-2.72643E-03
 -1       124-2.46591E-15 1.60429E-02-4.42379E-16
 -1       125-1.90892E-04 1.61274E-02-4.94307E-03
 -1       126-2.45817E-15 1.61150E-02-2.03830E-16
 -1       127-9.53877E-05 1.62017E-02-4.94772E-03
 -1       128-1.94850E-15 1.13542E-02-4.76004E-16
 -1       129-9.55143E-05 1.60603E-02-2.46161E-03
 -1       130-2.13259E-04 1.14690E-02-4.26707E-03
 -1       131-3.25174E-15 2.72625E-02-2.63244E-16
 -1       132-1.53775E-04 2.73359E-02-6.10066E-03
 -1       133-3.26128E-15 2.73199E-02-1.06008E-16
 -1       134-7.68984E-05 2.73939E-02-6.10515E-03
 -1       135-2.89075E-15 2.13581E-02-3.66786E-16
 -1       136-7.69002E-05 2.72801E-02-3.03984E-03
 -1       137-1.73933E-04 2.14480E-02-5.55319E-03
 -1       138-3.68455E-15 4.05410E-02-8.27732E-17
 -1       139-1.16063E-04 4.05994E-02-7.00006E-03
 -1       140-3.67501E-15 4.05846E-02 7.82354E-18
 -1       141-5.80078E-05 4.06430E-02-7.00458E-03
 -1       142-3.50832E-15 3.36758E-02-1.58998E-16
 -1       143-5.78939E-05 4.05558E-02-3.48993E-03
 -1       144-1.35160E-04 3.37438E-02-6.58181E-03
 -1       145-3.78891E-15 5.53628E-02 4.11464E-17
 -1       146-7.69920E-05 5.54088E-02-7.64403E-03
 -1       147-3.79384E-15 5.53921E-02 7.60265E-17
 -1       148-3.85764E-05 5.54347E-02-7.64826E-03
 -1       149-3.77781E-15 4.77933E-02 4.80437E-17
 -1       150-3.90815E-05 5.53758E-02-3.81105E-03
 -1       151-9.58545E-05 4.78403E-02-7.35343E-03
 -1       152-3.79080E-15 7.12086E-02-2.06030E-17
 -1       153-4.40455E-05 7.12415E-02-8.02771E-03
 -1       154-3.81140E-15 7.12242E-02 2.87043E-17
 -1       155-2.16869E-05 7.12574E-02-8.03278E-03
 -1       156-3.83209E-15 6.31961E-02 7.36038E-17
 -1       157-1.98378E-05 7.12214E-02-4.00603E-03
 -1       158-5.84404E-05 6.32195E-02-7.86671E-03
 -1       159-4.14859E-15 8.75799E-02-5.63785E-17
 -1       160 2.27651E-05 8.76459E-02-8.17249E-03
 -1       161-4.24864E-15 8.75703E-02 1.98109E-18
 -1       162 1.08463E-05 8.76029E-02-8.17102E-03
 -1       163-4.06493E-15 7.93762E-02-8.83354E-17